  29  29   0   0
  0.2994861E+02  0.7476593E-09  0.7476593E-09  0.1553700E-08  0.5000000E-15
  1.000000000000000E-004
  CAR 
 Ni_bulk                                 
      6.97757651    -26.53648705  301     -1.38321595      1.00000000
    -26.536  0.0000E+00  0.0000E+00  0.0000E+00  0.0000E+00
    -26.425  0.0000E+00  0.0000E+00  0.0000E+00  0.0000E+00
    -26.313  0.0000E+00  0.0000E+00  0.0000E+00  0.0000E+00
    -26.201  0.0000E+00  0.0000E+00  0.0000E+00  0.0000E+00
    -26.090  0.0000E+00  0.0000E+00  0.0000E+00  0.0000E+00
    -25.978  0.0000E+00  0.0000E+00  0.0000E+00  0.0000E+00
    -25.866 -0.4265E-33 -0.3555E-32 -0.4764E-34 -0.3971E-33
    -25.754 -0.2668E-25 -0.1681E-24 -0.2981E-26 -0.1878E-25
    -25.643 -0.1346E-18 -0.6406E-18 -0.1503E-19 -0.7156E-19
    -25.531 -0.5234E-13 -0.1877E-12 -0.5847E-14 -0.2096E-13
    -25.419 -0.1626E-08 -0.4380E-08 -0.1816E-09 -0.4894E-09
    -25.308 -0.3758E-05 -0.7541E-05 -0.4200E-06 -0.8429E-06
    -25.196 -0.5511E-03 -0.7906E-03 -0.6198E-04 -0.8917E-04
    -25.084  0.6438E-03  0.2968E-02  0.9938E-05  0.2424E-03
    -24.972  0.4338E-01  0.4643E-01  0.4856E-02  0.5429E-02
    -24.861  0.1811E-01  0.1267E-01  0.6879E-02  0.6844E-02
    -24.749 -0.1834E-02 -0.1551E-02  0.6674E-02  0.6671E-02
    -24.637 -0.6415E-04 -0.3602E-04  0.6667E-02  0.6667E-02
    -24.526 -0.1048E-06 -0.4348E-07  0.6667E-02  0.6667E-02
    -24.414 -0.1210E-10 -0.3765E-11  0.6667E-02  0.6667E-02
    -24.302 -0.1060E-15 -0.2650E-16  0.6667E-02  0.6667E-02
    -24.191  0.0000E+00  0.0000E+00  0.6667E-02  0.6667E-02
    -24.079  0.0000E+00  0.0000E+00  0.6667E-02  0.6667E-02
    -23.967  0.0000E+00  0.0000E+00  0.6667E-02  0.6667E-02
    -23.855  0.0000E+00  0.0000E+00  0.6667E-02  0.6667E-02
    -23.744  0.0000E+00  0.0000E+00  0.6667E-02  0.6667E-02
    -23.632  0.0000E+00  0.0000E+00  0.6667E-02  0.6667E-02
    -23.520  0.0000E+00  0.0000E+00  0.6667E-02  0.6667E-02
    -23.409  0.0000E+00  0.0000E+00  0.6667E-02  0.6667E-02
    -23.297  0.0000E+00  0.0000E+00  0.6667E-02  0.6667E-02
    -23.185  0.0000E+00  0.0000E+00  0.6667E-02  0.6667E-02
    -23.073  0.0000E+00  0.0000E+00  0.6667E-02  0.6667E-02
    -22.962  0.0000E+00  0.0000E+00  0.6667E-02  0.6667E-02
    -22.850  0.0000E+00  0.0000E+00  0.6667E-02  0.6667E-02
    -22.738  0.0000E+00  0.0000E+00  0.6667E-02  0.6667E-02
    -22.627  0.0000E+00  0.0000E+00  0.6667E-02  0.6667E-02
    -22.515  0.0000E+00  0.0000E+00  0.6667E-02  0.6667E-02
    -22.403  0.0000E+00  0.0000E+00  0.6667E-02  0.6667E-02
    -22.291  0.0000E+00  0.0000E+00  0.6667E-02  0.6667E-02
    -22.180  0.0000E+00  0.0000E+00  0.6667E-02  0.6667E-02
    -22.068  0.0000E+00  0.0000E+00  0.6667E-02  0.6667E-02
    -21.956  0.0000E+00  0.0000E+00  0.6667E-02  0.6667E-02
    -21.845  0.0000E+00  0.0000E+00  0.6667E-02  0.6667E-02
    -21.733  0.0000E+00  0.0000E+00  0.6667E-02  0.6667E-02
    -21.621  0.0000E+00  0.0000E+00  0.6667E-02  0.6667E-02
    -21.509  0.0000E+00  0.0000E+00  0.6667E-02  0.6667E-02
    -21.398  0.0000E+00  0.0000E+00  0.6667E-02  0.6667E-02
    -21.286  0.0000E+00  0.0000E+00  0.6667E-02  0.6667E-02
    -21.174  0.0000E+00  0.0000E+00  0.6667E-02  0.6667E-02
    -21.063  0.0000E+00  0.0000E+00  0.6667E-02  0.6667E-02
    -20.951  0.0000E+00  0.0000E+00  0.6667E-02  0.6667E-02
    -20.839  0.0000E+00  0.0000E+00  0.6667E-02  0.6667E-02
    -20.727  0.0000E+00  0.0000E+00  0.6667E-02  0.6667E-02
    -20.616  0.0000E+00  0.0000E+00  0.6667E-02  0.6667E-02
    -20.504  0.0000E+00  0.0000E+00  0.6667E-02  0.6667E-02
    -20.392  0.0000E+00  0.0000E+00  0.6667E-02  0.6667E-02
    -20.281  0.0000E+00  0.0000E+00  0.6667E-02  0.6667E-02
    -20.169  0.0000E+00  0.0000E+00  0.6667E-02  0.6667E-02
    -20.057  0.0000E+00  0.0000E+00  0.6667E-02  0.6667E-02
    -19.945  0.0000E+00  0.0000E+00  0.6667E-02  0.6667E-02
    -19.834  0.0000E+00  0.0000E+00  0.6667E-02  0.6667E-02
    -19.722  0.0000E+00  0.0000E+00  0.6667E-02  0.6667E-02
    -19.610  0.0000E+00  0.0000E+00  0.6667E-02  0.6667E-02
    -19.499  0.0000E+00  0.0000E+00  0.6667E-02  0.6667E-02
    -19.387  0.0000E+00  0.0000E+00  0.6667E-02  0.6667E-02
    -19.275  0.0000E+00  0.0000E+00  0.6667E-02  0.6667E-02
    -19.163  0.0000E+00  0.0000E+00  0.6667E-02  0.6667E-02
    -19.052  0.0000E+00  0.0000E+00  0.6667E-02  0.6667E-02
    -18.940  0.0000E+00  0.0000E+00  0.6667E-02  0.6667E-02
    -18.828  0.0000E+00  0.0000E+00  0.6667E-02  0.6667E-02
    -18.717  0.0000E+00  0.0000E+00  0.6667E-02  0.6667E-02
    -18.605  0.0000E+00  0.0000E+00  0.6667E-02  0.6667E-02
    -18.493  0.0000E+00  0.0000E+00  0.6667E-02  0.6667E-02
    -18.381  0.0000E+00  0.0000E+00  0.6667E-02  0.6667E-02
    -18.270  0.0000E+00  0.0000E+00  0.6667E-02  0.6667E-02
    -18.158  0.0000E+00  0.0000E+00  0.6667E-02  0.6667E-02
    -18.046  0.0000E+00  0.0000E+00  0.6667E-02  0.6667E-02
    -17.935  0.0000E+00  0.0000E+00  0.6667E-02  0.6667E-02
    -17.823  0.0000E+00  0.0000E+00  0.6667E-02  0.6667E-02
    -17.711  0.0000E+00  0.0000E+00  0.6667E-02  0.6667E-02
    -17.599  0.0000E+00  0.0000E+00  0.6667E-02  0.6667E-02
    -17.488  0.0000E+00  0.0000E+00  0.6667E-02  0.6667E-02
    -17.376  0.0000E+00  0.0000E+00  0.6667E-02  0.6667E-02
    -17.264  0.0000E+00  0.0000E+00  0.6667E-02  0.6667E-02
    -17.153  0.0000E+00  0.0000E+00  0.6667E-02  0.6667E-02
    -17.041  0.0000E+00  0.0000E+00  0.6667E-02  0.6667E-02
    -16.929  0.0000E+00  0.0000E+00  0.6667E-02  0.6667E-02
    -16.817  0.0000E+00  0.0000E+00  0.6667E-02  0.6667E-02
    -16.706  0.0000E+00  0.0000E+00  0.6667E-02  0.6667E-02
    -16.594  0.0000E+00  0.0000E+00  0.6667E-02  0.6667E-02
    -16.482  0.0000E+00  0.0000E+00  0.6667E-02  0.6667E-02
    -16.371  0.0000E+00  0.0000E+00  0.6667E-02  0.6667E-02
    -16.259  0.0000E+00  0.0000E+00  0.6667E-02  0.6667E-02
    -16.147  0.0000E+00  0.0000E+00  0.6667E-02  0.6667E-02
    -16.035  0.0000E+00  0.0000E+00  0.6667E-02  0.6667E-02
    -15.924  0.0000E+00  0.0000E+00  0.6667E-02  0.6667E-02
    -15.812  0.0000E+00  0.0000E+00  0.6667E-02  0.6667E-02
    -15.700  0.0000E+00  0.0000E+00  0.6667E-02  0.6667E-02
    -15.589  0.0000E+00  0.0000E+00  0.6667E-02  0.6667E-02
    -15.477  0.0000E+00  0.0000E+00  0.6667E-02  0.6667E-02
    -15.365  0.0000E+00  0.0000E+00  0.6667E-02  0.6667E-02
    -15.253  0.0000E+00  0.0000E+00  0.6667E-02  0.6667E-02
    -15.142  0.0000E+00  0.0000E+00  0.6667E-02  0.6667E-02
    -15.030  0.0000E+00  0.0000E+00  0.6667E-02  0.6667E-02
    -14.918  0.0000E+00  0.0000E+00  0.6667E-02  0.6667E-02
    -14.807  0.0000E+00  0.0000E+00  0.6667E-02  0.6667E-02
    -14.695  0.0000E+00  0.0000E+00  0.6667E-02  0.6667E-02
    -14.583  0.0000E+00  0.0000E+00  0.6667E-02  0.6667E-02
    -14.471  0.0000E+00  0.0000E+00  0.6667E-02  0.6667E-02
    -14.360  0.0000E+00  0.0000E+00  0.6667E-02  0.6667E-02
    -14.248  0.0000E+00  0.0000E+00  0.6667E-02  0.6667E-02
    -14.136  0.0000E+00  0.0000E+00  0.6667E-02  0.6667E-02
    -14.025  0.0000E+00  0.0000E+00  0.6667E-02  0.6667E-02
    -13.913  0.0000E+00  0.0000E+00  0.6667E-02  0.6667E-02
    -13.801  0.0000E+00  0.0000E+00  0.6667E-02  0.6667E-02
    -13.689  0.0000E+00  0.0000E+00  0.6667E-02  0.6667E-02
    -13.578  0.0000E+00  0.0000E+00  0.6667E-02  0.6667E-02
    -13.466  0.0000E+00  0.0000E+00  0.6667E-02  0.6667E-02
    -13.354  0.0000E+00  0.0000E+00  0.6667E-02  0.6667E-02
    -13.243  0.0000E+00  0.0000E+00  0.6667E-02  0.6667E-02
    -13.131  0.0000E+00  0.0000E+00  0.6667E-02  0.6667E-02
    -13.019  0.0000E+00  0.0000E+00  0.6667E-02  0.6667E-02
    -12.907  0.0000E+00  0.0000E+00  0.6667E-02  0.6667E-02
    -12.796  0.0000E+00  0.0000E+00  0.6667E-02  0.6667E-02
    -12.684  0.0000E+00  0.0000E+00  0.6667E-02  0.6667E-02
    -12.572  0.0000E+00  0.0000E+00  0.6667E-02  0.6667E-02
    -12.461  0.0000E+00  0.0000E+00  0.6667E-02  0.6667E-02
    -12.349  0.0000E+00  0.0000E+00  0.6667E-02  0.6667E-02
    -12.237  0.0000E+00  0.0000E+00  0.6667E-02  0.6667E-02
    -12.125  0.0000E+00  0.0000E+00  0.6667E-02  0.6667E-02
    -12.014  0.0000E+00  0.0000E+00  0.6667E-02  0.6667E-02
    -11.902  0.0000E+00  0.0000E+00  0.6667E-02  0.6667E-02
    -11.790  0.0000E+00  0.0000E+00  0.6667E-02  0.6667E-02
    -11.679  0.0000E+00  0.0000E+00  0.6667E-02  0.6667E-02
    -11.567 -0.7575E-30 -0.4264E-29  0.6667E-02  0.6667E-02
    -11.455 -0.1706E-22 -0.7548E-22  0.6667E-02  0.6667E-02
    -11.343 -0.3068E-16 -0.1042E-15  0.6667E-02  0.6667E-02
    -11.232 -0.4328E-11 -0.1177E-10  0.6667E-02  0.6667E-02
    -11.120 -0.4795E-07 -0.1018E-06  0.6667E-02  0.6667E-02
    -11.008 -0.3824E-04 -0.6265E-04  0.6662E-02  0.6660E-02
    -10.897 -0.1577E-02 -0.1817E-02  0.6486E-02  0.6457E-02
    -10.785  0.1313E-01  0.1780E-01  0.7953E-02  0.8445E-02
    -10.673  0.4618E-01  0.4355E-01  0.1311E-01  0.1331E-01
    -10.561  0.2752E-02  0.7711E-03  0.1342E-01  0.1340E-01
    -10.450 -0.7689E-03 -0.5643E-03  0.1333E-01  0.1333E-01
    -10.338 -0.7181E-05 -0.3956E-05  0.1333E-01  0.1333E-01
    -10.226 -0.4111E-08 -0.1761E-08  0.1333E-01  0.1333E-01
    -10.115 -0.1742E-12 -0.5845E-13  0.1333E-01  0.1333E-01
    -10.003 -0.1933E-18 -0.8279E-17  0.1333E-01  0.1333E-01
     -9.891 -0.4707E-13 -0.1017E-11  0.1333E-01  0.1333E-01
     -9.779 -0.9120E-09 -0.9439E-08  0.1333E-01  0.1333E-01
     -9.668 -0.1295E-05 -0.6220E-05  0.1333E-01  0.1333E-01
     -9.556 -0.1084E-03 -0.1971E-03  0.1332E-01  0.1331E-01
     -9.444  0.5535E-03  0.1858E-02  0.1338E-01  0.1352E-01
     -9.333  0.5232E-02  0.4772E-02  0.1397E-01  0.1405E-01
     -9.221  0.1825E-03 -0.3713E-03  0.1399E-01  0.1401E-01
     -9.109  0.1019E-01  0.1662E-01  0.1513E-01  0.1587E-01
     -8.997  0.1726E-01  0.1079E-01  0.1705E-01  0.1707E-01
     -8.886  0.7574E-03  0.3683E-02  0.1714E-01  0.1748E-01
     -8.774  0.2023E-01  0.2097E-01  0.1940E-01  0.1983E-01
     -8.662  0.6116E-02  0.1977E-02  0.2008E-01  0.2005E-01
     -8.551 -0.9099E-03 -0.6872E-03  0.1998E-01  0.1997E-01
     -8.439 -0.6303E-03  0.5610E-04  0.1991E-01  0.1998E-01
     -8.327  0.1968E-01  0.2185E-01  0.2211E-01  0.2242E-01
     -8.215  0.3227E-01  0.2960E-01  0.2571E-01  0.2572E-01
     -8.104  0.7269E-02  0.6739E-02  0.2653E-01  0.2648E-01
     -7.992  0.1702E-01  0.1965E-01  0.2843E-01  0.2867E-01
     -7.880  0.4620E-01  0.5603E-01  0.3359E-01  0.3493E-01
     -7.769  0.1001E+00  0.9821E-01  0.4477E-01  0.4590E-01
     -7.657  0.3893E-01  0.2811E-01  0.4912E-01  0.4904E-01
     -7.545 -0.1734E-02 -0.1061E-02  0.4893E-01  0.4892E-01
     -7.433 -0.3635E-03 -0.3134E-03  0.4889E-01  0.4889E-01
     -7.322 -0.1339E-03 -0.9622E-04  0.4887E-01  0.4888E-01
     -7.210 -0.7361E-03 -0.8192E-03  0.4879E-01  0.4879E-01
     -7.098  0.1575E-01  0.1356E-01  0.5055E-01  0.5030E-01
     -6.987  0.2643E-01  0.2122E-01  0.5350E-01  0.5267E-01
     -6.875  0.1039E-01  0.1708E-01  0.5467E-01  0.5458E-01
     -6.763  0.2147E-01  0.5805E-02  0.5706E-01  0.5523E-01
     -6.651  0.3891E-01  0.4532E-01  0.6141E-01  0.6029E-01
     -6.540  0.4658E-02  0.1201E-01  0.6193E-01  0.6163E-01
     -6.428  0.2023E-01  0.1741E-01  0.6419E-01  0.6358E-01
     -6.316  0.2602E-02  0.7693E-02  0.6448E-01  0.6444E-01
     -6.205  0.3120E-01  0.1202E-01  0.6797E-01  0.6578E-01
     -6.093  0.5134E-01  0.3096E-01  0.7370E-01  0.6924E-01
     -5.981  0.2434E-01  0.3568E-01  0.7642E-01  0.7322E-01
     -5.869  0.4077E-01  0.7523E-02  0.8097E-01  0.7406E-01
     -5.758  0.4959E-01  0.3732E-01  0.8651E-01  0.7823E-01
     -5.646  0.9465E-01  0.2728E-01  0.9709E-01  0.8128E-01
     -5.534  0.9951E-01  0.7400E-01  0.1082E+00  0.8955E-01
     -5.423  0.1644E+00  0.3739E-01  0.1266E+00  0.9372E-01
     -5.311  0.7771E-01  0.3009E-01  0.1352E+00  0.9709E-01
     -5.199  0.1164E+00  0.7055E-01  0.1483E+00  0.1050E+00
     -5.087  0.2219E+00  0.1451E+00  0.1730E+00  0.1212E+00
     -4.976  0.1634E+00  0.1105E+00  0.1913E+00  0.1335E+00
     -4.864  0.1565E+00  0.5294E-01  0.2088E+00  0.1394E+00
     -4.752  0.1603E+00  0.6385E-01  0.2267E+00  0.1466E+00
     -4.641  0.1460E+00  0.1617E+00  0.2430E+00  0.1646E+00
     -4.529  0.9575E-01  0.2211E+00  0.2537E+00  0.1893E+00
     -4.417  0.1470E+00  0.1683E+00  0.2701E+00  0.2081E+00
     -4.305  0.1811E+00  0.1701E+00  0.2903E+00  0.2272E+00
     -4.194  0.1675E+00  0.1237E+00  0.3091E+00  0.2410E+00
     -4.082  0.1604E+00  0.4392E-01  0.3270E+00  0.2459E+00
     -3.970  0.1381E+00  0.1278E+00  0.3424E+00  0.2602E+00
     -3.859  0.1908E+00  0.1597E+00  0.3637E+00  0.2780E+00
     -3.747  0.1915E+00  0.1381E+00  0.3851E+00  0.2934E+00
     -3.635  0.2692E+00  0.1731E+00  0.4152E+00  0.3128E+00
     -3.523  0.3955E+00  0.1487E+00  0.4594E+00  0.3294E+00
     -3.412  0.2526E+00  0.1375E+00  0.4876E+00  0.3447E+00
     -3.300  0.2462E+00  0.1656E+00  0.5151E+00  0.3632E+00
     -3.188  0.2380E+00  0.1522E+00  0.5417E+00  0.3802E+00
     -3.077  0.3529E+00  0.1869E+00  0.5811E+00  0.4011E+00
     -2.965  0.1990E+00  0.2526E+00  0.6033E+00  0.4293E+00
     -2.853  0.1626E+00  0.2782E+00  0.6215E+00  0.4604E+00
     -2.742  0.2415E+00  0.2778E+00  0.6485E+00  0.4915E+00
     -2.630  0.3329E+00  0.2765E+00  0.6857E+00  0.5223E+00
     -2.518  0.4598E+00  0.2220E+00  0.7370E+00  0.5471E+00
     -2.406  0.4163E+00  0.3350E+00  0.7836E+00  0.5846E+00
     -2.295  0.2123E+00  0.2392E+00  0.8073E+00  0.6113E+00
     -2.183  0.2555E+00  0.1351E+00  0.8358E+00  0.6264E+00
     -2.071  0.4001E+00  0.2160E+00  0.8805E+00  0.6505E+00
     -1.960  0.4842E+00  0.3234E+00  0.9346E+00  0.6866E+00
     -1.848  0.3031E+00  0.4237E+00  0.9685E+00  0.7340E+00
     -1.736  0.8745E-01  0.3412E+00  0.9782E+00  0.7721E+00
     -1.624  0.3853E-01  0.2686E+00  0.9825E+00  0.8021E+00
     -1.513  0.2645E-01  0.3471E+00  0.9855E+00  0.8409E+00
     -1.401  0.3875E-01  0.2759E+00  0.9898E+00  0.8717E+00
     -1.289  0.4691E-01  0.2791E+00  0.9951E+00  0.9029E+00
     -1.178  0.5327E-01  0.2605E+00  0.1001E+01  0.9320E+00
     -1.066  0.2502E-01  0.2914E+00  0.1004E+01  0.9645E+00
     -0.954  0.4138E-01  0.1866E+00  0.1008E+01  0.9854E+00
     -0.842  0.2977E-01  0.7985E-01  0.1012E+01  0.9943E+00
     -0.731  0.7500E-02  0.4580E-01  0.1013E+01  0.9994E+00
     -0.619  0.3432E-02  0.3055E-01  0.1013E+01  0.1003E+01
     -0.507  0.6206E-01  0.4932E-01  0.1020E+01  0.1008E+01
     -0.396  0.5535E-01  0.4030E-01  0.1026E+01  0.1013E+01
     -0.284  0.5941E-01 -0.2335E-02  0.1033E+01  0.1013E+01
     -0.172  0.6678E-02  0.3131E-01  0.1033E+01  0.1016E+01
     -0.060 -0.2563E-02  0.8109E-01  0.1033E+01  0.1025E+01
      0.051  0.2062E-01  0.7202E-01  0.1035E+01  0.1033E+01
      0.163  0.3175E-01  0.1230E-02  0.1039E+01  0.1033E+01
      0.275  0.2117E-01  0.1111E-01  0.1041E+01  0.1035E+01
      0.386  0.3312E-01  0.3355E-01  0.1045E+01  0.1038E+01
      0.498  0.1413E-01  0.1636E-01  0.1047E+01  0.1040E+01
      0.610  0.4499E-01  0.4453E-01  0.1052E+01  0.1045E+01
      0.722  0.2383E-01  0.1420E-01  0.1054E+01  0.1047E+01
      0.833  0.4184E-01  0.3148E-01  0.1059E+01  0.1050E+01
      0.945  0.2671E-01  0.3471E-01  0.1062E+01  0.1054E+01
      1.057  0.5918E-01  0.3947E-01  0.1069E+01  0.1059E+01
      1.168  0.5560E-01  0.3081E-01  0.1075E+01  0.1062E+01
      1.280  0.1126E-01  0.6920E-01  0.1076E+01  0.1070E+01
      1.392  0.1509E-01  0.4547E-01  0.1078E+01  0.1075E+01
      1.504  0.3510E-01  0.1528E-01  0.1082E+01  0.1076E+01
      1.615  0.1787E-01  0.3449E-01  0.1084E+01  0.1080E+01
      1.727  0.1259E-01  0.3169E-01  0.1085E+01  0.1084E+01
      1.839  0.6064E-01 -0.3552E-02  0.1092E+01  0.1083E+01
      1.950  0.5580E-01  0.1861E-01  0.1098E+01  0.1086E+01
      2.062  0.4383E-02  0.9199E-01  0.1099E+01  0.1096E+01
      2.174  0.2903E-01  0.2656E-01  0.1102E+01  0.1099E+01
      2.286  0.2035E-01  0.1425E-01  0.1104E+01  0.1100E+01
      2.397  0.2330E-01  0.2717E-01  0.1107E+01  0.1103E+01
      2.509  0.2342E-01  0.1968E-01  0.1109E+01  0.1106E+01
      2.621  0.1688E-01  0.2856E-01  0.1111E+01  0.1109E+01
      2.732  0.3870E-01  0.8914E-02  0.1116E+01  0.1110E+01
      2.844  0.5574E-01  0.2877E-01  0.1122E+01  0.1113E+01
      2.956  0.3932E-01  0.5687E-01  0.1126E+01  0.1119E+01
      3.068  0.3614E-01  0.4444E-01  0.1130E+01  0.1124E+01
      3.179  0.4686E-01  0.4685E-01  0.1135E+01  0.1130E+01
      3.291  0.1382E-01  0.4113E-01  0.1137E+01  0.1134E+01
      3.403  0.1743E-01  0.3049E-01  0.1139E+01  0.1138E+01
      3.514  0.4278E-01  0.2236E-01  0.1144E+01  0.1140E+01
      3.626  0.3834E-01  0.1717E-01  0.1148E+01  0.1142E+01
      3.738  0.7494E-01  0.4063E-01  0.1156E+01  0.1147E+01
      3.850  0.5219E-01  0.6023E-01  0.1162E+01  0.1153E+01
      3.961  0.1926E-01  0.7780E-01  0.1164E+01  0.1162E+01
      4.073  0.3114E-02  0.1883E-01  0.1165E+01  0.1164E+01
      4.185  0.2624E-01  0.2567E-02  0.1168E+01  0.1164E+01
      4.296  0.6169E-01  0.3484E-01  0.1175E+01  0.1168E+01
      4.408  0.6644E-01  0.6066E-01  0.1182E+01  0.1175E+01
      4.520  0.4812E-01  0.2816E-01  0.1187E+01  0.1178E+01
      4.632  0.9225E-01  0.1156E+00  0.1198E+01  0.1191E+01
      4.743  0.5287E-01  0.6648E-01  0.1204E+01  0.1198E+01
      4.855  0.2943E-01  0.2454E-01  0.1207E+01  0.1201E+01
      4.967  0.1276E-01  0.4318E-01  0.1208E+01  0.1206E+01
      5.078  0.4418E-02  0.1901E-01  0.1209E+01  0.1208E+01
      5.190  0.3731E-01  0.1689E-02  0.1213E+01  0.1208E+01
      5.302  0.5933E-01  0.2221E-01  0.1220E+01  0.1211E+01
      5.414  0.5327E-02  0.5453E-01  0.1220E+01  0.1217E+01
      5.525 -0.1102E-02  0.2766E-01  0.1220E+01  0.1220E+01
      5.637 -0.2070E-04  0.2198E-03  0.1220E+01  0.1220E+01
      5.749 -0.2491E-07 -0.3770E-03  0.1220E+01  0.1220E+01
      5.860 -0.2259E-11 -0.3388E-05  0.1220E+01  0.1220E+01
      5.972 -0.1767E-16 -0.1951E-08  0.1220E+01  0.1220E+01
      6.084  0.0000E+00 -0.8348E-13  0.1220E+01  0.1220E+01
      6.196  0.0000E+00  0.0000E+00  0.1220E+01  0.1220E+01
      6.307  0.0000E+00  0.0000E+00  0.1220E+01  0.1220E+01
      6.419  0.0000E+00  0.0000E+00  0.1220E+01  0.1220E+01
      6.531  0.0000E+00  0.0000E+00  0.1220E+01  0.1220E+01
      6.642  0.0000E+00  0.0000E+00  0.1220E+01  0.1220E+01
      6.754  0.0000E+00  0.0000E+00  0.1220E+01  0.1220E+01
      6.866  0.0000E+00  0.0000E+00  0.1220E+01  0.1220E+01
      6.978  0.0000E+00  0.0000E+00  0.1220E+01  0.1220E+01
